# vtk DataFile Version 3.0
vtk output
ASCII
DATASET UNSTRUCTURED_GRID

POINTS 8 float
 -1 -1 -1
  1 -1 -1
 -1  1 -1
  1  1 -1
 -1 -1  1
  1 -1  1
 -1  1  1
  1  1  1
CELLS 5 25
 4 1 2 4 7
 4 0 1 2 4
 4 1 3 2 7
 4 1 4 5 7
 4 2 6 4 7
CELL_TYPES 5
 10
 10
 10
 10
 10
CELL_DATA 5
VECTORS magnetic float
 1 0 0
 1 0 0
 1 0 0
 1 0 0
 1 0 0
POINT_DATA 8
SCALARS nuclear float 1
LOOKUP_TABLE default
 1
 1
 1
 1
 1
 1
 1
 1