# OOMMF OVF 2.0
#
# Segment count: 1
#
# Begin: Segment
# Begin: Header
#
# Title: Oxs_MinDriver::Magnetization
# Desc: Oxs vector field output
# Desc:  MIF source file: /mnt/ceph/home/h1110371/Desktop/MagneticSasviewTestData/OOMMF_chiraltestcases/INPUT_isolated_sk_DMI_T.mif
# Desc:  Iteration: 217, State id: 508
# Desc:  Stage: 0, Stage iteration: 217
# Desc:  Stage simulation time: -1 s
# Desc:  Total simulation time: -2 s
# meshunit: m
# meshtype: rectangular
# xbase: 3.7499999999999995e-10
# ybase: 3.7499999999999995e-10
# zbase: 1.0000000000000001e-09
# xnodes: 80
# ynodes: 80
# znodes: 1
# xstepsize: 7.4999999999999989e-10
# ystepsize: 7.4999999999999989e-10
# zstepsize: 2.0000000000000001e-09
# xmin: 0
# ymin: 0
# zmin: 0
# xmax: 5.9999999999999995e-08
# ymax: 5.9999999999999995e-08
# zmax: 2.0000000000000001e-09
# valuedim: 3
# valuelabels: Magnetization_x Magnetization_y Magnetization_z
# valueunits: A/m A/m A/m
#
# End: Header
#
# Begin: Data Text
 505613.032564973 -505613.032564973 835889.300446479
 497208.517514553 -222091.369095226 955750.550030911
 516972.831146086 -84686.4238610590 967247.280415110
 538415.140513552 -28309.9242985238 958805.342419400
 553484.353991109 -7679.48436393392 950576.717265339
 562234.669096170 -1126.59101024919 945458.041194328
 566750.382164375 471.546013533108 942758.602167539
 568888.587560200 588.657343514806 941469.823428395
 569832.132164313 395.921001599490 940899.136145651
 570222.732312852 217.741985564809 940662.526170833
 570374.377066122 107.002763239196 940570.602632701
 570429.142008348 48.5427622714285 940537.395105171
 570447.148291995 20.6056915515285 940526.475215310
 570452.253234026 8.21517890261330 940523.379142025
 570453.289974148 3.06389144009681 940522.750361884
 570453.261672129 1.05395432611429 940522.767532248
 570453.068534651 0.323033560188252 940522.884676017
 570452.921791802 0.0800894919981277 940522.973679638
 570452.838725871 0.00968781530071302 940523.024061397
 570452.797912932 -0.00544724757460666 940523.048815556
 570452.779709082 -0.00584353853097528 940523.059856685
 570452.772274352 -0.00370568915559078 940523.064366051
 570452.769385412 -0.00191914940912211 940523.066118271
 570452.768365276 -0.00100620745080621 940523.066737011
 570452.767975874 -0.000322278172956229 940523.066973194
 570452.767907618 -0.000102682476728700 940523.067014593
 570452.767928161 0.000156907026680431 940523.067002133
 570452.768003082 0.000132466481191563 940523.066956692
 570452.767982027 9.17833584648662e-05 940523.066969462
 570452.767880441 1.76952128669896e-05 940523.067031077
 570452.767703931 -1.47969406170854e-05 940523.067138135
 570452.767583868 7.39605388830757e-05 940523.067210956
 570452.767565427 0.000128751101650279 940523.067222142
 570452.767615753 0.000147233846252729 940523.067191618
 570452.767655811 9.21872558097580e-05 940523.067167321
 570452.767608032 -1.61832152994662e-05 940523.067196300
 570452.767524369 2.90190430922745e-06 940523.067247044
 570452.767457596 -2.91246296922062e-05 940523.067287544
 570452.767463757 7.44532501926827e-05 940523.067283808
 570452.767490176 -2.07649468975814e-05 940523.067267783
 570452.767490176 2.07650604711729e-05 940523.067267783
 570452.767463756 -7.44533231472866e-05 940523.067283807
 570452.767457596 2.91244096917775e-05 940523.067287544
 570452.767524369 -2.90187408749834e-06 940523.067247044
 570452.767608032 1.61834073644460e-05 940523.067196300
 570452.767655811 -9.21872185380095e-05 940523.067167321
 570452.767615753 -0.000147233862726545 940523.067191618
 570452.767565427 -0.000128751126421778 940523.067222142
 570452.767583868 -7.39606169231964e-05 940523.067210956
 570452.767703931 1.47969060715862e-05 940523.067138135
 570452.767880441 -1.76951821100599e-05 940523.067031077
 570452.767982027 -9.17833990996281e-05 940523.066969463
 570452.768003082 -0.000132466441188409 940523.066956692
 570452.767928161 -0.000156907012711637 940523.067002133
 570452.767907618 0.000102682476948428 940523.067014593
 570452.767975874 0.000322278283127943 940523.066973194
 570452.768365276 0.00100620741727473 940523.066737011
 570452.769385412 0.00191914945940744 940523.066118271
 570452.772274352 0.00370568907155233 940523.064366051
 570452.779709082 0.00584353837605643 940523.059856685
 570452.797912931 0.00544724770254308 940523.048815556
 570452.838725871 -0.00968781524817157 940523.024061397
 570452.921791802 -0.0800894919723155 940522.973679638
 570453.068534651 -0.323033560178483 940522.884676017
 570453.261672129 -1.05395432621640 940522.767532248
 570453.289974148 -3.06389144004391 940522.750361884
 570452.253234026 -8.21517890257764 940523.379142025
 570447.148291995 -20.6056915515807 940526.475215311
 570429.142008348 -48.5427622714457 940537.395105171
 570374.377066122 -107.002763239190 940570.602632700
 570222.732312852 -217.741985564760 940662.526170833
 569832.132164313 -395.921001599523 940899.136145651
 568888.587560200 -588.657343514882 941469.823428395
 566750.382164375 -471.546013533153 942758.602167539
 562234.669096170 1126.59101024917 945458.041194328
 553484.353991109 7679.48436393387 950576.717265339
 538415.140513552 28309.9242985238 958805.342419401
 516972.831146086 84686.4238610591 967247.280415110
 497208.517514553 222091.369095227 955750.550030911
 505613.032564973 505613.032564973 835889.300446479
 222091.369095227 -497208.517514553 955750.550030911
 210241.427832465 -210241.427832465 1059054.80691319
 220293.145110201 -81823.6791898417 1074604.95799214
 233869.415338371 -29717.4414855358 1074440.30557348
 244186.948710263 -9864.65797286766 1072508.93823905
 250503.081515335 -2825.13615953084 1071093.00471855
 253914.206521399 -574.895803710377 1070293.06510947
 255602.001129300 22.9064743700437 1069891.40406585
 256381.555507232 116.345960734571 1069704.85857516
 256720.860500675 88.9307143682168 1069623.48135927
 256860.542415963 51.1178374456599 1069589.94906307
 256914.861769172 25.6263539169995 1069576.90380141
 256934.674683846 11.7369821987970 1069572.14474169
 256941.339668686 5.00060429568157 1069570.54369698
 256943.328624854 1.99259428275854 1069570.06590088
 256943.799398595 0.739444714800917 1069569.95280817
 256943.844421398 0.251530963638375 1069569.94199252
 256943.803440492 0.0751283251287008 1069569.95183743
 256943.764542599 0.0174101550824519 1069569.96118191
 256943.741048133 0.00119361045124663 1069569.96682601
 256943.729188222 -0.00196141561303536 1069569.96967513
 256943.723797009 -0.00167522065341327 1069569.97097026
 256943.721491919 -0.00108652473872917 1069569.97152402
 256943.720497019 -0.000439493692363027 1069569.97176302
 256943.720116263 -0.000244501484574195 1069569.97185449
 256943.719887713 8.50751286081724e-05 1069569.97190940
 256943.719948721 8.59063638395250e-05 1069569.97189474
 256943.719898121 0.000182193568731438 1069569.97190690
 256943.719996882 8.91981220467872e-05 1069569.97188317
 256943.719883077 7.76867690503957e-05 1069569.97191051
 256943.719870012 2.61061498227196e-05 1069569.97191365
 256943.719794789 0.000101560345913476 1069569.97193172
 256943.719860223 7.14688951263494e-05 1069569.97191600
 256943.719936966 0.000159797754678801 1069569.97189756
 256943.720006852 3.62045433528920e-06 1069569.97188077
 256943.720016387 9.32060031182975e-05 1069569.97187848
 256943.719969604 -8.46792663470022e-05 1069569.97188972
 256943.719950937 0.000106871568185892 1069569.97189421
 256943.719955658 -6.93894407485637e-05 1069569.97189307
 256943.719984330 0.000114558746772855 1069569.97188618
 256943.719984330 -0.000114558704048042 1069569.97188618
 256943.719955658 6.93893720528988e-05 1069569.97189307
 256943.719950937 -0.000106871603901523 1069569.97189421
 256943.719969604 8.46792411931098e-05 1069569.97188972
 256943.720016387 -9.32059359668170e-05 1069569.97187848
 256943.720006852 -3.62041651969955e-06 1069569.97188077
 256943.719936966 -0.000159797721373610 1069569.97189756
 256943.719860222 -7.14688986206234e-05 1069569.97191600
 256943.719794789 -0.000101560337602728 1069569.97193172
 256943.719870012 -2.61062370092808e-05 1069569.97191365
 256943.719883077 -7.76868284413285e-05 1069569.97191051
 256943.719996882 -8.91980644412419e-05 1069569.97188317
 256943.719898121 -0.000182193568285886 1069569.97190690
 256943.719948721 -8.59063757733922e-05 1069569.97189474
 256943.719887713 -8.50751219514111e-05 1069569.97190940
 256943.720116263 0.000244501565557254 1069569.97185449
 256943.720497019 0.000439493742861808 1069569.97176302
 256943.721491919 0.00108652470612612 1069569.97152402
 256943.723797009 0.00167522052753335 1069569.97097026
 256943.729188222 0.00196141559814560 1069569.96967513
 256943.741048133 -0.00119361040140819 1069569.96682601
 256943.764542599 -0.0174101551014507 1069569.96118191
 256943.803440492 -0.0751283250725346 1069569.95183743
 256943.844421398 -0.251530963628247 1069569.94199252
 256943.799398595 -0.739444714827675 1069569.95280817
 256943.328624854 -1.99259428270368 1069570.06590088
 256941.339668686 -5.00060429565684 1069570.54369698
 256934.674683846 -11.7369821988281 1069572.14474169
 256914.861769172 -25.6263539170779 1069576.90380141
 256860.542415963 -51.1178374456922 1069589.94906307
 256720.860500675 -88.9307143681864 1069623.48135927
 256381.555507232 -116.345960734584 1069704.85857516
 255602.001129300 -22.9064743700604 1069891.40406585
 253914.206521399 574.895803710421 1070293.06510947
 250503.081515335 2825.13615953089 1071093.00471855
 244186.948710263 9864.65797286764 1072508.93823905
 233869.415338371 29717.4414855358 1074440.30557348
 220293.145110201 81823.6791898418 1074604.95799214
 210241.427832465 210241.427832465 1059054.80691319
 222091.369095226 497208.517514553 955750.550030911
 84686.4238610591 -516972.831146086 967247.280415110
 81823.6791898417 -220293.145110201 1074604.95799214
 87858.2023851795 -87858.2023851795 1092960.14225007
 95205.3037104730 -33756.2468813960 1095352.21090838
 100877.045482482 -12503.2699354471 1095293.33510966
 104473.437198664 -4424.17130346565 1095018.59693257
 106497.758089553 -1469.98000518285 1094831.52433636
 107545.321553494 -443.838727320589 1094730.01549201
 108053.081875461 -112.528684697078 1094680.09885743
 108286.045381449 -17.3905824857293 1094657.08423835
 108387.805300713 4.10119021009982 1094647.01326285
 108430.226539643 5.78727848991096 1094642.81203462
 108447.095638244 3.75034838093001 1094641.14093778
 108453.470039913 1.94305220794440 1094640.50940595
 108455.739279648 0.887526174308611 1094640.28457595
 108456.486920500 0.368431315333593 1094640.21050057
 108456.706149029 0.139292731331969 1094640.18877953
 108456.757792309 0.0472310923123139 1094640.18366273
 108456.762970308 0.0134874184915968 1094640.18314970
 108456.759136769 0.00253776426277724 1094640.18352952
 108456.755351041 -0.000205391577183731 1094640.18390461
 108456.753057704 -0.000657961672903849 1094640.18413184
 108456.751868812 -0.000409843626702782 1094640.18424963
 108456.751258488 -0.000203149515368301 1094640.18431010
 108456.750941222 -3.78523299409424e-05 1094640.18434154
 108456.750862491 7.45950516049454e-05 1094640.18434934
 108456.750819229 0.000132732229552620 1094640.18435362
 108456.750920141 9.87292431824439e-05 1094640.18434363
 108456.750941794 0.000130779713234600 1094640.18434148
 108456.751014763 -7.19044155605486e-06 1094640.18433425
 108456.750998065 9.41860063075232e-05 1094640.18433590
 108456.751065431 -4.40316370945269e-05 1094640.18432923
 108456.751106663 0.000118311009709770 1094640.18432515
 108456.751224946 -4.05579073871359e-05 1094640.18431343
 108456.751271442 9.14461172969846e-05 1094640.18430882
 108456.751320530 -7.51427613508563e-05 1094640.18430396
 108456.751298315 6.11576060704758e-05 1094640.18430616
 108456.751307773 -5.65840534760484e-05 1094640.18430522
 108456.751311180 7.77534416808337e-05 1094640.18430488
 108456.751332471 -5.05384185559488e-05 1094640.18430277
 108456.751332471 5.05384344599936e-05 1094640.18430277
 108456.751311180 -7.77534567657818e-05 1094640.18430488
 108456.751307773 5.65840681905652e-05 1094640.18430522
 108456.751298315 -6.11575998007849e-05 1094640.18430616
 108456.751320530 7.51427259551812e-05 1094640.18430396
 108456.751271442 -9.14460783858873e-05 1094640.18430882
 108456.751224946 4.05579968864439e-05 1094640.18431343
 108456.751106663 -0.000118311011148133 1094640.18432515
 108456.751065431 4.40316190821038e-05 1094640.18432923
 108456.750998065 -9.41860406345960e-05 1094640.18433590
 108456.751014763 7.19040641326357e-06 1094640.18433425
 108456.750941794 -0.000130779702411625 1094640.18434148
 108456.750920141 -9.87292867462246e-05 1094640.18434363
 108456.750819229 -0.000132732280249774 1094640.18435362
 108456.750862491 -7.45951447872633e-05 1094640.18434934
 108456.750941222 3.78524311393739e-05 1094640.18434154
 108456.751258488 0.000203149588560873 1094640.18431010
 108456.751868812 0.000409843541072940 1094640.18424963
 108456.753057704 0.000657961662874683 1094640.18413184
 108456.755351041 0.000205391550250952 1094640.18390461
 108456.759136769 -0.00253776425190919 1094640.18352952
 108456.762970308 -0.0134874184716640 1094640.18314970
 108456.757792309 -0.0472310922914649 1094640.18366273
 108456.706149029 -0.139292731331959 1094640.18877953
 108456.486920500 -0.368431315410446 1094640.21050057
 108455.739279648 -0.887526174354558 1094640.28457595
 108453.470039913 -1.94305220786397 1094640.50940595
 108447.095638244 -3.75034838086175 1094641.14093778
 108430.226539643 -5.78727848991910 1094642.81203462
 108387.805300713 -4.10119021005071 1094647.01326285
 108286.045381449 17.3905824857527 1094657.08423835
 108053.081875461 112.528684696941 1094680.09885743
 107545.321553494 443.838727320576 1094730.01549201
 106497.758089553 1469.98000518299 1094831.52433636
 104473.437198664 4424.17130346563 1095018.59693257
 100877.045482482 12503.2699354470 1095293.33510966
 95205.3037104730 33756.2468813961 1095352.21090838
 87858.2023851795 87858.2023851795 1092960.14225007
 81823.6791898418 220293.145110201 1074604.95799214
 84686.4238610590 516972.831146086 967247.280415110
 28309.9242985239 -538415.140513552 958805.342419401
 29717.4414855358 -233869.415338371 1074440.30557348
 33756.2468813960 -95205.3037104730 1095352.21090838
 37720.4360593450 -37720.4360593449 1098705.75560838
 40680.3052457967 -14670.8263299042 1099149.61657634
 42579.9203490207 -5601.54225063802 1099161.30440781
 43680.4641211038 -2093.33964182302 1099130.39944463
 44271.2963916639 -762.325386479101 1099108.48926564
 44569.8404238173 -269.018938909666 1099096.65496416
 44713.2167355994 -91.3273197147665 1099090.86062458
 44779.0664053628 -29.5213944465915 1099088.18315017
 44808.0974825736 -8.94282210549625 1099087.00034166
 44820.4068029956 -2.46900180399892 1099086.49847404
 44825.4277947898 -0.586197366105093 1099086.29371068
 44827.3949016043 -0.100962191399005 1099086.21348206
 44828.1325273356 -0.00166972109574096 1099086.18339697
 44828.3954117150 0.00786448533902487 1099086.17267474
 44828.4832533254 0.00341010138757493 1099086.16909194
 44828.5101687880 0.000248528939930794 1099086.16799414
 44828.5171470094 -0.000753973372232244 1099086.16770952
 44828.5185413288 -0.000832909108822066 1099086.16765265
 44828.5183157066 -0.000536512899990568 1099086.16766185
 44828.5181770386 -0.000321961429420481 1099086.16766751
 44828.5179379603 -0.000129313593625616 1099086.16767726
 44828.5179218368 -4.45651868963695e-05 1099086.16767792
 44828.5179645550 2.85895953085589e-05 1099086.16767618
 44828.5180112699 3.62778612233483e-05 1099086.16767427
 44828.5181797562 5.27267485073228e-05 1099086.16766740
 44828.5181958177 3.06717893479347e-06 1099086.16766674
 44828.5183189312 -2.28839587736202e-06 1099086.16766172
 44828.5182936841 -3.06518371208202e-05 1099086.16766275
 44828.5183622822 -3.04524493954045e-05 1099086.16765995
 44828.5183735743 -1.45935177133869e-05 1099086.16765949
 44828.5184348012 -3.44391621555752e-05 1099086.16765700
 44828.5184596521 -4.88066005932567e-06 1099086.16765598
 44828.5184712462 -4.07695510692140e-05 1099086.16765551
 44828.5184626699 1.52134020447202e-05 1099086.16765586
 44828.5184531703 -1.57301312930352e-05 1099086.16765625
 44828.5184558616 4.08681574619143e-05 1099086.16765614
 44828.5184610904 -1.69442562989772e-05 1099086.16765592
 44828.5184610904 1.69442462494453e-05 1099086.16765592
 44828.5184558616 -4.08681420857196e-05 1099086.16765614
 44828.5184531703 1.57301724869520e-05 1099086.16765625
 44828.5184626699 -1.52134427047916e-05 1099086.16765586
 44828.5184712463 4.07695157633546e-05 1099086.16765551
 44828.5184596521 4.88074349660775e-06 1099086.16765598
 44828.5184348012 3.44391869776324e-05 1099086.16765700
 44828.5183735743 1.45934721481175e-05 1099086.16765949
 44828.5183622822 3.04524210515721e-05 1099086.16765995
 44828.5182936842 3.06518184778281e-05 1099086.16766275
 44828.5183189312 2.28841843270938e-06 1099086.16766172
 44828.5181958177 -3.06719690317557e-06 1099086.16766674
 44828.5181797562 -5.27267571936482e-05 1099086.16766740
 44828.5180112699 -3.62778527928367e-05 1099086.16767427
 44828.5179645549 -2.85896169064900e-05 1099086.16767618
 44828.5179218367 4.45651722819783e-05 1099086.16767792
 44828.5179379603 0.000129313611139497 1099086.16767726
 44828.5181770386 0.000321961419907259 1099086.16766751
 44828.5183157066 0.000536512854625738 1099086.16766185
 44828.5185413288 0.000832909133333864 1099086.16765265
 44828.5171470094 0.000753973390729895 1099086.16770952
 44828.5101687880 -0.000248528928347549 1099086.16799414
 44828.4832533254 -0.00341010139995715 1099086.16909194
 44828.3954117150 -0.00786448534122246 1099086.17267474
 44828.1325273356 0.00166972111786036 1099086.18339697
 44827.3949016042 0.100962191446629 1099086.21348206
 44825.4277947897 0.586197366109814 1099086.29371068
 44820.4068029956 2.46900180395536 1099086.49847404
 44808.0974825735 8.94282210548795 1099087.00034166
 44779.0664053628 29.5213944465948 1099088.18315017
 44713.2167355994 91.3273197147408 1099090.86062458
 44569.8404238174 269.018938909684 1099096.65496416
 44271.2963916638 762.325386479128 1099108.48926564
 43680.4641211038 2093.33964182301 1099130.39944463
 42579.9203490207 5601.54225063805 1099161.30440781
 40680.3052457967 14670.8263299042 1099149.61657634
 37720.4360593449 37720.4360593449 1098705.75560838
 33756.2468813961 95205.3037104730 1095352.21090838
 29717.4414855358 233869.415338371 1074440.30557348
 28309.9242985238 538415.140513552 958805.342419400
 7679.48436393389 -553484.353991109 950576.717265339
 9864.65797286764 -244186.948710263 1072508.93823905
 12503.2699354470 -100877.045482482 1095293.33510966
 14670.8263299042 -40680.3052457967 1099149.61657634
 16202.3778895248 -16202.3778895249 1099761.32224290
 17178.6942981202 -6391.96817318859 1099847.27812778
 17753.1341047373 -2497.62248956472 1099853.89398381
 18069.8786288911 -965.599590628937 1099851.14770307
 18235.3275489744 -368.887740803563 1099848.77903783
 18317.8248410919 -139.102642976019 1099847.46121612
 18357.3071756004 -51.7376885649515 1099846.81051339
 18375.5133932775 -18.9788602294487 1099846.50753973
 18383.6233389771 -6.87230859105742 1099846.37215645
 18387.1187903351 -2.46220095015556 1099846.31374412
 18388.5772014527 -0.876726831774221 1099846.28936399
 18389.1663407084 -0.312621098060299 1099846.27951419
 18389.3965182490 -0.112690211030174 1099846.27566569
 18389.4828139889 -0.0416539093999752 1099846.27422283
 18389.5141975013 -0.0159001552644443 1099846.27369809
 18389.5247623496 -0.00631086694021251 1099846.27352145
 18389.5281418026 -0.00264587833701974 1099846.27346494
 18389.5292727728 -0.00106444306087142 1099846.27344603
 18389.5294366849 -0.000499391122800130 1099846.27344329
 18389.5296977589 -0.000210608481480974 1099846.27343893
 18389.5296773969 -0.000120536293804892 1099846.27343927
 18389.5298752045 -6.95317294442188e-05 1099846.27343596
 18389.5299072139 -6.83884646543750e-05 1099846.27343543
 18389.5300518799 -4.07727599325785e-05 1099846.27343301
 18389.5300878847 -7.33058530976568e-05 1099846.27343240
 18389.5301370847 -2.32968387912466e-05 1099846.27343158
 18389.5301556784 -8.47829165559771e-05 1099846.27343127
 18389.5301458927 4.15983261468247e-07 1099846.27343143
 18389.5301877698 -7.78373780258798e-05 1099846.27343073
 18389.5301668691 2.01740845297960e-05 1099846.27343108
 18389.5302193152 -6.52251624678525e-05 1099846.27343021
 18389.5301777872 4.09670633645571e-05 1099846.27343090
 18389.5302080026 -3.20370399934330e-05 1099846.27343040
 18389.5301687517 7.01274891243376e-05 1099846.27343105
 18389.5301896842 -1.44129947432961e-05 1099846.27343070
 18389.5301794665 5.36744859288223e-05 1099846.27343087
 18389.5301794665 -5.36744802746643e-05 1099846.27343087
 18389.5301896842 1.44129917367737e-05 1099846.27343070
 18389.5301687517 -7.01274937594438e-05 1099846.27343105
 18389.5302080027 3.20370213787360e-05 1099846.27343040
 18389.5301777872 -4.09670645326460e-05 1099846.27343090
 18389.5302193153 6.52252017301276e-05 1099846.27343021
 18389.5301668692 -2.01740780055413e-05 1099846.27343108
 18389.5301877698 7.78374202860802e-05 1099846.27343073
 18389.5301458927 -4.15999053486541e-07 1099846.27343143
 18389.5301556784 8.47828663564116e-05 1099846.27343127
 18389.5301370847 2.32968426599490e-05 1099846.27343158
 18389.5300878848 7.33058556026335e-05 1099846.27343240
 18389.5300518798 4.07727642773805e-05 1099846.27343301
 18389.5299072139 6.83884517572979e-05 1099846.27343543
 18389.5298752045 6.95317220532998e-05 1099846.27343596
 18389.5296773969 0.000120536304429007 1099846.27343927
 18389.5296977589 0.000210608473175199 1099846.27343893
 18389.5294366849 0.000499391104867044 1099846.27344329
 18389.5292727728 0.00106444307004490 1099846.27344603
 18389.5281418025 0.00264587834349371 1099846.27346494
 18389.5247623496 0.00631086693029792 1099846.27352145
 18389.5141975013 0.0159001552755602 1099846.27369809
 18389.4828139889 0.0416539094173254 1099846.27422283
 18389.3965182490 0.112690210999871 1099846.27566569
 18389.1663407083 0.312621098071361 1099846.27951419
 18388.5772014527 0.876726831779585 1099846.28936399
 18387.1187903352 2.46220095016337 1099846.31374412
 18383.6233389771 6.87230859108159 1099846.37215645
 18375.5133932775 18.9788602294418 1099846.50753973
 18357.3071756004 51.7376885649473 1099846.81051339
 18317.8248410919 139.102642975998 1099847.46121612
 18235.3275489743 368.887740803545 1099848.77903783
 18069.8786288911 965.599590628940 1099851.14770307
 17753.1341047372 2497.62248956474 1099853.89398381
 17178.6942981203 6391.96817318858 1099847.27812778
 16202.3778895249 16202.3778895248 1099761.32224290
 14670.8263299042 40680.3052457967 1099149.61657634
 12503.2699354470 100877.045482482 1095293.33510966
 9864.65797286764 244186.948710263 1072508.93823905
 7679.48436393393 553484.353991109 950576.717265339
 1126.59101024911 -562234.669096170 945458.041194328
 2825.13615953089 -250503.081515335 1071093.00471855
 4424.17130346563 -104473.437198664 1095018.59693257
 5601.54225063805 -42579.9203490208 1099161.30440781
 6391.96817318859 -17178.6942981202 1099847.27812778
 6887.99975762096 -6887.99975762097 1099956.86775377
 7181.43718923534 -2747.52292922445 1099973.12607066
 7346.14932022947 -1090.15583623454 1099974.92955540
 7434.39528870541 -430.070831722000 1099974.79280471
 7479.74809503944 -168.617238872919 1099974.55649513
 7502.19913700918 -65.6846653005797 1099974.41456319
 7512.93953589722 -25.4243065483747 1099974.34292493
 7517.91771627138 -9.78285835067336 1099974.30916249
 7520.15693892839 -3.74560421939858 1099974.29389308
 7521.13627868205 -1.42933924628665 1099974.28720268
 7521.55283468682 -0.544592808293825 1099974.28435517
 7521.72505281549 -0.207846975237010 1099974.28317765
 7521.79455632050 -0.0795878529167614 1099974.28270239
 7521.82149127680 -0.0306614335887444 1099974.28251821
 7521.83191686263 -0.0119648702606227 1099974.28244692
 7521.83562478699 -0.00460354710267491 1099974.28242156
 7521.83713691647 -0.00190563026070764 1099974.28241122
 7521.83759116736 -0.000750392054357111 1099974.28240812
 7521.83782178503 -0.000417341707232032 1099974.28240654
 7521.83794400274 -0.000231560341023348 1099974.28240570
 7521.83792818667 -0.000184923715703087 1099974.28240581
 7521.83806878890 -0.000117519856948238 1099974.28240485
 7521.83797664406 -7.45412640681866e-05 1099974.28240548
 7521.83809688117 -5.91364739237803e-05 1099974.28240466
 7521.83800469091 -1.23058658639848e-05 1099974.28240529
 7521.83806184932 -4.06976223442370e-05 1099974.28240490
 7521.83802075612 -6.51317947798495e-06 1099974.28240518
 7521.83804017656 -4.67669972182002e-05 1099974.28240505
 7521.83805896199 -1.48869903351074e-05 1099974.28240492
 7521.83805699803 -4.12784271950742e-05 1099974.28240493
 7521.83809132215 6.14212347366477e-06 1099974.28240470
 7521.83807277772 2.11787642665178e-06 1099974.28240482
 7521.83809766500 4.22513283150247e-05 1099974.28240465
 7521.83808581418 2.17569784913153e-05 1099974.28240473
 7521.83809696305 2.29160309513753e-05 1099974.28240466
 7521.83809696304 -2.29160352771854e-05 1099974.28240466
 7521.83808581420 -2.17569744503853e-05 1099974.28240473
 7521.83809766500 -4.22513345936283e-05 1099974.28240465
 7521.83807277771 -2.11787215201888e-06 1099974.28240482
 7521.83809132213 -6.14211445805859e-06 1099974.28240470
 7521.83805699803 4.12784225184549e-05 1099974.28240493
 7521.83805896201 1.48869971911171e-05 1099974.28240492
 7521.83804017656 4.67669979385944e-05 1099974.28240505
 7521.83802075618 6.51317740010777e-06 1099974.28240518
 7521.83806184930 4.06976296668621e-05 1099974.28240490
 7521.83800469092 1.23058592656764e-05 1099974.28240529
 7521.83809688115 5.91364769058954e-05 1099974.28240466
 7521.83797664408 7.45412634224284e-05 1099974.28240548
 7521.83806878889 0.000117519847792310 1099974.28240485
 7521.83792818667 0.000184923718937947 1099974.28240581
 7521.83794400273 0.000231560332926611 1099974.28240570
 7521.83782178505 0.000417341708925952 1099974.28240654
 7521.83759116734 0.000750392060408801 1099974.28240812
 7521.83713691646 0.00190563025291400 1099974.28241122
 7521.83562478699 0.00460354709916055 1099974.28242156
 7521.83191686262 0.0119648702614931 1099974.28244692
 7521.82149127677 0.0306614335907137 1099974.28251821
 7521.79455632052 0.0795878529121355 1099974.28270239
 7521.72505281549 0.207846975245284 1099974.28317765
 7521.55283468679 0.544592808294097 1099974.28435517
 7521.13627868207 1.42933924629023 1099974.28720268
 7520.15693892837 3.74560421940736 1099974.29389308
 7517.91771627141 9.78285835067179 1099974.30916249
 7512.93953589722 25.4243065483804 1099974.34292493
 7502.19913700920 65.6846653005733 1099974.41456319
 7479.74809503945 168.617238872911 1099974.55649513
 7434.39528870540 430.070831721991 1099974.79280471
 7346.14932022945 1090.15583623455 1099974.92955540
 7181.43718923535 2747.52292922444 1099973.12607066
 6887.99975762097 6887.99975762096 1099956.86775377
 6391.96817318858 17178.6942981202 1099847.27812778
 5601.54225063801 42579.9203490207 1099161.30440781
 4424.17130346560 104473.437198664 1095018.59693257
 2825.13615953083 250503.081515335 1071093.00471855
 1126.59101024917 562234.669096170 945458.041194328
 -471.546013533186 -566750.382164375 942758.602167539
 574.895803710409 -253914.206521399 1070293.06510947
 1469.98000518297 -106497.758089553 1094831.52433636
 2093.33964182297 -43680.4641211038 1099130.39944463
 2497.62248956474 -17753.1341047372 1099853.89398381
 2747.52292922446 -7181.43718923533 1099973.12607066
 2895.41805100653 -2895.41805100654 1099992.37865933
 2979.39420810520 -1163.87503059401 1099995.34935611
 3025.24967884862 -466.388198580885 1099995.74105831
 3049.39293889752 -186.266829635260 1099995.75749517
 3061.68166096841 -74.1286461294767 1099995.73663281
 3067.74324323106 -29.3946910864869 1099995.72184956
 3070.64645079339 -11.6150884671070 1099995.71408050
 3071.99907740516 -4.57511194805268 1099995.71035561
 3072.61329680703 -1.79715843078219 1099995.70864813
 3072.88515921935 -0.704616306182003 1099995.70788995
 3073.00243637995 -0.275914882742853 1099995.70756251
 3073.05222262518 -0.108004941694436 1099995.70742345
 3073.07257293244 -0.0423442638494734 1099995.70736661
 3073.08094620382 -0.0165891457180994 1099995.70734321
 3073.08443040946 -0.00658313040866273 1099995.70733348
 3073.08553123421 -0.00269898399314188 1099995.70733041
 3073.08629608077 -0.00119437171604512 1099995.70732827
 3073.08623827543 -0.000596683596158378 1099995.70732843
 3073.08650059260 -0.000283660897542760 1099995.70732770
 3073.08630859503 -0.000172847112469181 1099995.70732823
 3073.08641178899 -2.79547558103832e-05 1099995.70732794
 3073.08627862942 -3.07992306126866e-05 1099995.70732832
 3073.08630413420 4.43242359644416e-05 1099995.70732825
 3073.08624011322 -2.01324323416199e-05 1099995.70732842
 3073.08624078322 8.06150664826996e-06 1099995.70732842
 3073.08623801592 -6.45634509413601e-05 1099995.70732843
 3073.08623908586 -4.35127552407019e-05 1099995.70732843
 3073.08628469485 -9.00091950606587e-05 1099995.70732830
 3073.08628223998 -4.37187943196978e-05 1099995.70732831
 3073.08633863066 -4.81561239227003e-05 1099995.70732815
 3073.08632455820 1.52378505910728e-05 1099995.70732819
 3073.08636523998 1.39168584103549e-05 1099995.70732807
 3073.08635312252 4.21226676709050e-05 1099995.70732811
 3073.08636863015 3.53868162041582e-06 1099995.70732807
 3073.08636863015 -3.53868455807472e-06 1099995.70732807
 3073.08635312251 -4.21226719985756e-05 1099995.70732811
 3073.08636523998 -1.39168513448760e-05 1099995.70732807
 3073.08632455819 -1.52378495629635e-05 1099995.70732819
 3073.08633863067 4.81561221408827e-05 1099995.70732815
 3073.08628223999 4.37187971592786e-05 1099995.70732831
 3073.08628469485 9.00091967955023e-05 1099995.70732830
 3073.08623908587 4.35127572284868e-05 1099995.70732843
 3073.08623801592 6.45634549498319e-05 1099995.70732843