# OOMMF: rectangular mesh v1.0
# Segment count: 1
# Begin: Segment
# Begin: Header
# Title: Oxs_MinDriver::Magnetization
# Desc: Oxs vector field output
# Desc: MIF source file: /mnt/ceph/home/h1110371/Desktop/MagneticSasviewTestData/OOMMF_chiraltestcases/INPUT_isolated_sk_DMI_T.mif
# Desc: Iteration: 217, State id: 508
# Desc: Stage: 0, Stage iteration: 217
# Desc: Stage simulation time: -1 s
# Desc: Total simulation time: -2 s
# meshtype: rectangular
# meshunit: m
# xbase: 3.7499999999999995e-10
# ybase: 3.7499999999999995e-10
# zbase: 1.0000000000000001e-09
# xstepsize: 7.4999999999999989e-10
# ystepsize: 7.4999999999999989e-10
# zstepsize: 2.0000000000000001e-09
# xnodes: 80
# ynodes: 80
# znodes: 1
# xmin: 0
# ymin: 0
# zmin: 0
# xmax: 5.9999999999999995e-08
# ymax: 5.9999999999999995e-08
# zmax: 2.0000000000000001e-09
# valueunit: A/m
# valuemultiplier: 1
# ValueRangeMinMag: 1100000.0000000002
# ValueRangeMaxMag: 1100000.0000000049
# End: Header
# Begin: Data Text
 505613.03256497299 -505613.03256497299  835889.30044647900
 497208.51751455298 -222091.36909522599  955750.55003091099
 516972.83114608598 -84686.423861058996  967247.28041511006
 538415.14051355200 -28309.924298523802  958805.34241940000
 553484.35399110895 -7679.4843639339197  950576.71726533899
 562234.66909616999 -1126.5910102491900  945458.04119432799
 566750.38216437504  471.54601353310801  942758.60216753895
 568888.58756020002  588.65734351480603  941469.82342839497
 569832.13216431299  395.92100159949001  940899.13614565099
 570222.73231285205  217.74198556480900  940662.52617083304
 570374.37706612202  107.00276323919600  940570.60263270105
 570429.14200834802  48.542762271428501  940537.39510517102
 570447.14829199505  20.605691551528501  940526.47521531000
 570452.25323402602  8.2151789026132995  940523.37914202502
 570453.28997414804  3.0638914400968100  940522.75036188401
 570453.26167212904  1.0539543261142901  940522.76753224805
 570453.06853465096  0.32303356018825202  940522.88467601698
 570452.92179180204  0.080089491998127704  940522.97367963800
 570452.83872587106  0.0096878153007130194  940523.02406139695
 570452.79791293200 -0.0054472475746066597  940523.04881555599
 570452.77970908198 -0.0058435385309752799  940523.05985668499
 570452.77227435203 -0.0037056891555907801  940523.06436605100
 570452.76938541199 -0.0019191494091221101  940523.06611827097
 570452.76836527605 -0.0010062074508062099  940523.06673701096
 570452.76797587401 -0.00032227817295622899  940523.06697319401
 570452.76790761796 -0.00010268247672870000  940523.06701459305
 570452.76792816096  0.00015690702668043100  940523.06700213300
 570452.76800308202  0.00013246648119156300  940523.06695669203
 570452.76798202703  9.1783358464866201e-05  940523.06696946197
 570452.76788044104  1.7695212866989602e-05  940523.06703107699
 570452.76770393096 -1.4796940617085400e-05  940523.06713813497
 570452.76758386800  7.3960538883075698e-05  940523.06721095601
 570452.76756542700  0.00012875110165027899  940523.06722214201
 570452.76761575299  0.00014723384625272900  940523.06719161803
 570452.76765581104  9.2187255809757996e-05  940523.06716732099
 570452.76760803198 -1.6183215299466200e-05  940523.06719630002
 570452.76752436894  2.9019043092274499e-06  940523.06724704395
 570452.76745759603 -2.9124629692206199e-05  940523.06728754402
 570452.76746375696  7.4453250192682707e-05  940523.06728380802
 570452.76749017602 -2.0764946897581401e-05  940523.06726778299
 570452.76749017602  2.0765060471172901e-05  940523.06726778299
 570452.76746375603 -7.4453323147286599e-05  940523.06728380697
 570452.76745759603  2.9124409691777500e-05  940523.06728754402
 570452.76752436894 -2.9018740874983398e-06  940523.06724704395
 570452.76760803198  1.6183407364445999e-05  940523.06719630002
 570452.76765581104 -9.2187218538009497e-05  940523.06716732099
 570452.76761575299 -0.00014723386272654499  940523.06719161803
 570452.76756542700 -0.00012875112642177800  940523.06722214201
 570452.76758386800 -7.3960616923196397e-05  940523.06721095601
 570452.76770393096  1.4796906071586200e-05  940523.06713813497
 570452.76788044104 -1.7695182110059901e-05  940523.06703107699
 570452.76798202703 -9.1783399099628100e-05  940523.06696946302
 570452.76800308202 -0.00013246644118840900  940523.06695669203
 570452.76792816096 -0.00015690701271163699  940523.06700213300
 570452.76790761796  0.00010268247694842799  940523.06701459305
 570452.76797587401  0.00032227828312794303  940523.06697319401
 570452.76836527605  0.0010062074172747300  940523.06673701096
 570452.76938541199  0.0019191494594074400  940523.06611827097
 570452.77227435203  0.0037056890715523299  940523.06436605100
 570452.77970908198  0.0058435383760564296  940523.05985668499
 570452.79791293095  0.0054472477025430798  940523.04881555599
 570452.83872587106 -0.0096878152481715708  940523.02406139695
 570452.92179180204 -0.080089491972315505  940522.97367963800
 570453.06853465096 -0.32303356017848300  940522.88467601698
 570453.26167212904 -1.0539543262164000  940522.76753224805
 570453.28997414804 -3.0638914400439101  940522.75036188401
 570452.25323402602 -8.2151789025776392  940523.37914202502
 570447.14829199505 -20.605691551580701  940526.47521531105
 570429.14200834802 -48.542762271445703  940537.39510517102
 570374.37706612202 -107.00276323919000  940570.60263270000
 570222.73231285205 -217.74198556476000  940662.52617083304
 569832.13216431299 -395.92100159952298  940899.13614565099
 568888.58756020002 -588.65734351488197  941469.82342839497
 566750.38216437504 -471.54601353315297  942758.60216753895
 562234.66909616999  1126.5910102491700  945458.04119432799
 553484.35399110895  7679.4843639338696  950576.71726533899
 538415.14051355200  28309.924298523802  958805.34241940104
 516972.83114608598  84686.423861059098  967247.28041511006
 497208.51751455298  222091.36909522701  955750.55003091099
 505613.03256497299  505613.03256497299  835889.30044647900
 222091.36909522701 -497208.51751455298  955750.55003091099
 210241.42783246501 -210241.42783246501  1059054.8069131901
 220293.14511020100 -81823.679189841700  1074604.9579921400
 233869.41533837101 -29717.441485535801  1074440.3055734800
 244186.94871026301 -9864.6579728676606  1072508.9382390501
 250503.08151533501 -2825.1361595308399  1071093.0047185500
 253914.20652139900 -574.89580371037698  1070293.0651094699
 255602.00112930001  22.906474370043700  1069891.4040658500
 256381.55550723200  116.34596073457099  1069704.8585751599
 256720.86050067499  88.930714368216798  1069623.4813592699
 256860.54241596299  51.117837445659902  1069589.9490630699
 256914.86176917201  25.626353916999498  1069576.9038014100
 256934.67468384601  11.736982198797000  1069572.1447416900
 256941.33966868601  5.0006042956815699  1069570.5436969800
 256943.32862485401  1.9925942827585399  1069570.0659008799
 256943.79939859500  0.73944471480091700  1069569.9528081701
 256943.84442139801  0.25153096363837502  1069569.9419925199
 256943.80344049199  0.075128325128700796  1069569.9518374300
 256943.76454259900  0.017410155082451900  1069569.9611819100
 256943.74104813300  0.0011936104512466300  1069569.9668260100
 256943.72918822200 -0.0019614156130353601  1069569.9696751300
 256943.72379700901 -0.0016752206534132699  1069569.9709702600
 256943.72149191899 -0.0010865247387291700  1069569.9715240200
 256943.72049701901 -0.00043949369236302699  1069569.9717630199
 256943.72011626299 -0.00024450148457419500  1069569.9718544900
 256943.71988771300  8.5075128608172405e-05  1069569.9719094001
 256943.71994872100  8.5906363839524996e-05  1069569.9718947399
 256943.71989812099  0.00018219356873143801  1069569.9719068999
 256943.71999688199  8.9198122046787196e-05  1069569.9718831701
 256943.71988307699  7.7686769050395701e-05  1069569.9719105100
 256943.71987001199  2.6106149822719600e-05  1069569.9719136499
 256943.71979478901  0.00010156034591347600  1069569.9719317199
 256943.71986022301  7.1468895126349400e-05  1069569.9719159999
 256943.71993696599  0.00015979775467880099  1069569.9718975599
 256943.72000685200  3.6204543352891999e-06  1069569.9718807701
 256943.72001638700  9.3206003118297506e-05  1069569.9718784799
 256943.71996960399 -8.4679266347002200e-05  1069569.9718897201
 256943.71995093700  0.00010687156818589200  1069569.9718942100
 256943.71995565799 -6.9389440748563700e-05  1069569.9718930700
 256943.71998433000  0.00011455874677285500  1069569.9718861801
 256943.71998433000 -0.00011455870404804200  1069569.9718861801
 256943.71995565799  6.9389372052898793e-05  1069569.9718930700
 256943.71995093700 -0.00010687160390152300  1069569.9718942100
 256943.71996960399  8.4679241193109803e-05  1069569.9718897201
 256943.72001638700 -9.3205935966817003e-05  1069569.9718784799
 256943.72000685200 -3.6204165196995501e-06  1069569.9718807701
 256943.71993696599 -0.00015979772137361000  1069569.9718975599
 256943.71986022199 -7.1468898620623403e-05  1069569.9719159999
 256943.71979478901 -0.00010156033760272800  1069569.9719317199
 256943.71987001199 -2.6106237009280800e-05  1069569.9719136499
 256943.71988307699 -7.7686828441328505e-05  1069569.9719105100
 256943.71999688199 -8.9198064441241902e-05  1069569.9718831701
 256943.71989812099 -0.00018219356828588600  1069569.9719068999
 256943.71994872100 -8.5906375773392194e-05  1069569.9718947399
 256943.71988771300 -8.5075121951411095e-05  1069569.9719094001
 256943.72011626299  0.00024450156555725402  1069569.9718544900
 256943.72049701901  0.00043949374286180798  1069569.9717630199
 256943.72149191899  0.0010865247061261200  1069569.9715240200
 256943.72379700901  0.0016752205275333500  1069569.9709702600
 256943.72918822200  0.0019614155981456001  1069569.9696751300
 256943.74104813300 -0.0011936104014081900  1069569.9668260100
 256943.76454259900 -0.017410155101450699  1069569.9611819100
 256943.80344049199 -0.075128325072534599  1069569.9518374300
 256943.84442139801 -0.25153096362824701  1069569.9419925199
 256943.79939859500 -0.73944471482767504  1069569.9528081701
 256943.32862485401 -1.9925942827036800  1069570.0659008799
 256941.33966868601 -5.0006042956568404  1069570.5436969800
 256934.67468384601 -11.736982198828100  1069572.1447416900
 256914.86176917201 -25.626353917077900  1069576.9038014100
 256860.54241596299 -51.117837445692203  1069589.9490630699
 256720.86050067499 -88.930714368186401  1069623.4813592699
 256381.55550723200 -116.34596073458400  1069704.8585751599
 255602.00112930001 -22.906474370060401  1069891.4040658500
 253914.20652139900  574.89580371042098  1070293.0651094699
 250503.08151533501  2825.1361595308899  1071093.0047185500
 244186.94871026301  9864.6579728676406  1072508.9382390501
 233869.41533837101  29717.441485535801  1074440.3055734800
 220293.14511020100  81823.679189841801  1074604.9579921400
 210241.42783246501  210241.42783246501  1059054.8069131901
 222091.36909522599  497208.51751455298  955750.55003091099
 84686.423861059098 -516972.83114608598  967247.28041511006
 81823.679189841700 -220293.14511020100  1074604.9579921400
 87858.202385179495 -87858.202385179495  1092960.1422500701
 95205.303710473003 -33756.246881396000  1095352.2109083801
 100877.04548248200 -12503.269935447101  1095293.3351096599
 104473.43719866400 -4424.1713034656505  1095018.5969325700
 106497.75808955300 -1469.9800051828499  1094831.5243363599
 107545.32155349400 -443.83872732058899  1094730.0154920099
 108053.08187546099 -112.52868469707801  1094680.0988574300
 108286.04538144900 -17.390582485729301  1094657.0842383499
 108387.80530071299  4.1011902100998201  1094647.0132628500
 108430.22653964300  5.7872784899109604  1094642.8120346200
 108447.09563824401  3.7503483809300100  1094641.1409377800
 108453.47003991299  1.9430522079443999  1094640.5094059501
 108455.73927964800  0.88752617430861103  1094640.2845759499
 108456.48692050000  0.36843131533359302  1094640.2105005700
 108456.70614902901  0.13929273133196901  1094640.1887795301
 108456.75779230900  0.047231092312313899  1094640.1836627300
 108456.76297030800  0.013487418491596801  1094640.1831497001
 108456.75913676900  0.0025377642627772402  1094640.1835295199
 108456.75535104101 -0.00020539157718373101  1094640.1839046101
 108456.75305770400 -0.00065796167290384905  1094640.1841318400
 108456.75186881200 -0.00040984362670278202  1094640.1842496300
 108456.75125848800 -0.00020314951536830100  1094640.1843101000
 108456.75094122200 -3.7852329940942402e-05  1094640.1843415401
 108456.75086249100  7.4595051604945401e-05  1094640.1843493399
 108456.75081922900  0.00013273222955262001  1094640.1843536200
 108456.75092014100  9.8729243182443905e-05  1094640.1843436300
 108456.75094179400  0.00013077971323459999  1094640.1843414800
 108456.75101476299 -7.1904415560548600e-06  1094640.1843342499
 108456.75099806501  9.4186006307523198e-05  1094640.1843359000
 108456.75106543100 -4.4031637094526900e-05  1094640.1843292301
 108456.75110666300  0.00011831100970977000  1094640.1843251500
 108456.75122494600 -4.0557907387135900e-05  1094640.1843134300
 108456.75127144200  9.1446117296984603e-05  1094640.1843088199
 108456.75132053001 -7.5142761350856295e-05  1094640.1843039601
 108456.75129831499  6.1157606070475799e-05  1094640.1843061601
 108456.75130777300 -5.6584053476048397e-05  1094640.1843052199
 108456.75131118001  7.7753441680833698e-05  1094640.1843048800
 108456.75133247100 -5.0538418555948801e-05  1094640.1843027701
 108456.75133247100  5.0538434459993599e-05  1094640.1843027701
 108456.75131118001 -7.7753456765781799e-05  1094640.1843048800
 108456.75130777300  5.6584068190565200e-05  1094640.1843052199
 108456.75129831499 -6.1157599800784897e-05  1094640.1843061601
 108456.75132053001  7.5142725955181202e-05  1094640.1843039601
 108456.75127144200 -9.1446078385887304e-05  1094640.1843088199
 108456.75122494600  4.0557996886443902e-05  1094640.1843134300
 108456.75110666300 -0.00011831101114813299  1094640.1843251500
 108456.75106543100  4.4031619082103797e-05  1094640.1843292301
 108456.75099806501 -9.4186040634595998e-05  1094640.1843359000
 108456.75101476299  7.1904064132635696e-06  1094640.1843342499
 108456.75094179400 -0.00013077970241162499  1094640.1843414800
 108456.75092014100 -9.8729286746224593e-05  1094640.1843436300
 108456.75081922900 -0.00013273228024977401  1094640.1843536200
 108456.75086249100 -7.4595144787263301e-05  1094640.1843493399
 108456.75094122200  3.7852431139373900e-05  1094640.1843415401
 108456.75125848800  0.00020314958856087299  1094640.1843101000
 108456.75186881200  0.00040984354107293999  1094640.1842496300
 108456.75305770400  0.00065796166287468297  1094640.1841318400
 108456.75535104101  0.00020539155025095201  1094640.1839046101
 108456.75913676900 -0.0025377642519091902  1094640.1835295199
 108456.76297030800 -0.013487418471664001  1094640.1831497001
 108456.75779230900 -0.047231092291464903  1094640.1836627300
 108456.70614902901 -0.13929273133195899  1094640.1887795301
 108456.48692050000 -0.36843131541044599  1094640.2105005700
 108455.73927964800 -0.88752617435455805  1094640.2845759499
 108453.47003991299 -1.9430522078639700  1094640.5094059501
 108447.09563824401 -3.7503483808617499  1094641.1409377800
 108430.22653964300 -5.7872784899190997  1094642.8120346200
 108387.80530071299 -4.1011902100507100  1094647.0132628500
 108286.04538144900  17.390582485752699  1094657.0842383499
 108053.08187546099  112.52868469694100  1094680.0988574300
 107545.32155349400  443.83872732057603  1094730.0154920099
 106497.75808955300  1469.9800051829900  1094831.5243363599
 104473.43719866400  4424.1713034656304  1095018.5969325700
 100877.04548248200  12503.269935447001  1095293.3351096599
 95205.303710473003  33756.246881396102  1095352.2109083801
 87858.202385179495  87858.202385179495  1092960.1422500701
 81823.679189841801  220293.14511020100  1074604.9579921400
 84686.423861058996  516972.83114608598  967247.28041511006
 28309.924298523900 -538415.14051355200  958805.34241940104
 29717.441485535801 -233869.41533837101  1074440.3055734800
 33756.246881396000 -95205.303710473003  1095352.2109083801
 37720.436059344996 -37720.436059344902  1098705.7556083801
 40680.305245796699 -14670.826329904199  1099149.6165763400
 42579.920349020700 -5601.5422506380201  1099161.3044078101
 43680.464121103803 -2093.3396418230200  1099130.3994446299
 44271.296391663898 -762.32538647910098  1099108.4892656400
 44569.840423817303 -269.01893890966602  1099096.6549641599
 44713.216735599402 -91.327319714766503  1099090.8606245799
 44779.066405362799 -29.521394446591501  1099088.1831501699
 44808.097482573598 -8.9428221054962496  1099087.0003416601
 44820.406802995603 -2.4690018039989199  1099086.4984740401
 44825.427794789801 -0.58619736610509299  1099086.2937106800
 44827.394901604297 -0.10096219139900500  1099086.2134820600
 44828.132527335598 -0.0016697210957409600  1099086.1833969699
 44828.395411714999  0.0078644853390248699  1099086.1726747400
 44828.483253325401  0.0034101013875749301  1099086.1690919399
 44828.510168788001  0.00024852893993079398  1099086.1679941399
 44828.517147009399 -0.00075397337223224396  1099086.1677095201
 44828.518541328798 -0.00083290910882206600  1099086.1676526500
 44828.518315706599 -0.00053651289999056802  1099086.1676618501
 44828.518177038597 -0.00032196142942048100  1099086.1676675100
 44828.517937960300 -0.00012931359362561599  1099086.1676772600
 44828.517921836799 -4.4565186896369499e-05  1099086.1676779201
 44828.517964555002  2.8589595308558901e-05  1099086.1676761799
 44828.518011269902  3.6277861223348297e-05  1099086.1676742700
 44828.518179756204  5.2726748507322797e-05  1099086.1676674001
 44828.518195817698  3.0671789347934700e-06  1099086.1676667400
 44828.518318931201 -2.2883958773620199e-06  1099086.1676617200
 44828.518293684101 -3.0651837120820202e-05  1099086.1676627500
 44828.518362282201 -3.0452449395404501e-05  1099086.1676599500
 44828.518373574298 -1.4593517713386900e-05  1099086.1676594899
 44828.518434801197 -3.4439162155575202e-05  1099086.1676570000
 44828.518459652099 -4.8806600593256704e-06  1099086.1676559800
 44828.518471246200 -4.0769551069213999e-05  1099086.1676555099
 44828.518462669897  1.5213402044720200e-05  1099086.1676558601
 44828.518453170298 -1.5730131293035200e-05  1099086.1676562501
 44828.518455861602  4.0868157461914298e-05  1099086.1676561399
 44828.518461090403 -1.6944256298977198e-05  1099086.1676559199
 44828.518461090403  1.6944246249445299e-05  1099086.1676559199
 44828.518455861602 -4.0868142085719603e-05  1099086.1676561399
 44828.518453170298  1.5730172486952002e-05  1099086.1676562501
 44828.518462669897 -1.5213442704791600e-05  1099086.1676558601
 44828.518471246301  4.0769515763354601e-05  1099086.1676555099
 44828.518459652099  4.8807434966077503e-06  1099086.1676559800
 44828.518434801197  3.4439186977632399e-05  1099086.1676570000
 44828.518373574298  1.4593472148117501e-05  1099086.1676594899
 44828.518362282201  3.0452421051572100e-05  1099086.1676599500
 44828.518293684203  3.0651818477828097e-05  1099086.1676627500
 44828.518318931201  2.2884184327093799e-06  1099086.1676617200
 44828.518195817698 -3.0671969031755700e-06  1099086.1676667400
 44828.518179756204 -5.2726757193648199e-05  1099086.1676674001
 44828.518011269902 -3.6277852792836699e-05  1099086.1676742700
 44828.517964554900 -2.8589616906490000e-05  1099086.1676761799
 44828.517921836697  4.4565172281978300e-05  1099086.1676779201
 44828.517937960300  0.00012931361113949699  1099086.1676772600
 44828.518177038597  0.00032196141990725898  1099086.1676675100
 44828.518315706599  0.00053651285462573796  1099086.1676618501
 44828.518541328798  0.00083290913333386397  1099086.1676526500
 44828.517147009399  0.00075397339072989496  1099086.1677095201
 44828.510168788001 -0.00024852892834754898  1099086.1679941399
 44828.483253325401 -0.0034101013999571499  1099086.1690919399
 44828.395411714999 -0.0078644853412224592  1099086.1726747400
 44828.132527335598  0.0016697211178603600  1099086.1833969699
 44827.394901604202  0.10096219144662900  1099086.2134820600
 44825.427794789699  0.58619736610981399  1099086.2937106800
 44820.406802995603  2.4690018039553601  1099086.4984740401
 44808.097482573503  8.9428221054879504  1099087.0003416601
 44779.066405362799  29.521394446594801  1099088.1831501699
 44713.216735599402  91.327319714740796  1099090.8606245799
 44569.840423817397  269.01893890968398  1099096.6549641599
 44271.296391663796  762.32538647912804  1099108.4892656400
 43680.464121103803  2093.3396418230100  1099130.3994446299
 42579.920349020700  5601.5422506380501  1099161.3044078101
 40680.305245796699  14670.826329904199  1099149.6165763400
 37720.436059344902  37720.436059344902  1098705.7556083801
 33756.246881396102  95205.303710473003  1095352.2109083801
 29717.441485535801  233869.41533837101  1074440.3055734800
 28309.924298523802  538415.14051355200  958805.34241940000
 7679.4843639338897 -553484.35399110895  950576.71726533899
 9864.6579728676406 -244186.94871026301  1072508.9382390501
 12503.269935447001 -100877.04548248200  1095293.3351096599
 14670.826329904199 -40680.305245796699  1099149.6165763400
 16202.377889524800 -16202.377889524900  1099761.3222429000
 17178.694298120201 -6391.9681731885903  1099847.2781277800
 17753.134104737299 -2497.6224895647201  1099853.8939838100
 18069.878628891100 -965.59959062893699  1099851.1477030700
 18235.327548974401 -368.88774080356302  1099848.7790378300
 18317.824841091900 -139.10264297601901  1099847.4612161200
 18357.307175600399 -51.737688564951497  1099846.8105133900
 18375.513393277499 -18.978860229448699  1099846.5075397301
 18383.623338977101 -6.8723085910574202  1099846.3721564501
 18387.118790335098 -2.4622009501555602  1099846.3137441201
 18388.577201452699 -0.87672683177422095  1099846.2893639901
 18389.166340708402 -0.31262109806029897  1099846.2795141900
 18389.396518248999 -0.11269021103017400  1099846.2756656900
 18389.482813988900 -0.041653909399975202  1099846.2742228301
 18389.514197501299 -0.015900155264444299  1099846.2736980901
 18389.524762349600 -0.0063108669402125103  1099846.2735214501
 18389.528141802599 -0.0026458783370197402  1099846.2734649400
 18389.529272772801 -0.0010644430608714201  1099846.2734460300
 18389.529436684901 -0.00049939112280013005  1099846.2734432900
 18389.529697758899 -0.00021060848148097400  1099846.2734389300
 18389.529677396898 -0.00012053629380489200  1099846.2734392700
 18389.529875204498 -6.9531729444218795e-05  1099846.2734359601
 18389.529907213899 -6.8388464654375004e-05  1099846.2734354299
 18389.530051879901 -4.0772759932578503e-05  1099846.2734330101
 18389.530087884701 -7.3305853097656797e-05  1099846.2734324001
 18389.530137084701 -2.3296838791246599e-05  1099846.2734315800
 18389.530155678400 -8.4782916555977100e-05  1099846.2734312699
 18389.530145892699  4.1598326146824698e-07  1099846.2734314301
 18389.530187769800 -7.7837378025879798e-05  1099846.2734307300
 18389.530166869099  2.0174084529796002e-05  1099846.2734310799
 18389.530219315198 -6.5225162467852499e-05  1099846.2734302101
 18389.530177787201  4.0967063364557100e-05  1099846.2734308999
 18389.530208002601 -3.2037039993433002e-05  1099846.2734304001
 18389.530168751699  7.0127489124337605e-05  1099846.2734310499
 18389.530189684199 -1.4412994743296100e-05  1099846.2734306999
 18389.530179466499  5.3674485928822301e-05  1099846.2734308699
 18389.530179466499 -5.3674480274664299e-05  1099846.2734308699
 18389.530189684199  1.4412991736773701e-05  1099846.2734306999
 18389.530168751699 -7.0127493759443801e-05  1099846.2734310499
 18389.530208002700  3.2037021378735999e-05  1099846.2734304001
 18389.530177787201 -4.0967064532646001e-05  1099846.2734308999
 18389.530219315300  6.5225201730127597e-05  1099846.2734302101
 18389.530166869201 -2.0174078005541300e-05  1099846.2734310799
 18389.530187769800  7.7837420286080197e-05  1099846.2734307300
 18389.530145892699 -4.1599905348654099e-07  1099846.2734314301
 18389.530155678400  8.4782866356411594e-05  1099846.2734312699
 18389.530137084701  2.3296842659948999e-05  1099846.2734315800
 18389.530087884799  7.3305855602633506e-05  1099846.2734324001
 18389.530051879799  4.0772764277380500e-05  1099846.2734330101
 18389.529907213899  6.8388451757297894e-05  1099846.2734354299
 18389.529875204498  6.9531722053299796e-05  1099846.2734359601
 18389.529677396898  0.00012053630442900700  1099846.2734392700
 18389.529697758899  0.00021060847317519899  1099846.2734389300
 18389.529436684901  0.00049939110486704405  1099846.2734432900
 18389.529272772801  0.0010644430700449000  1099846.2734460300
 18389.528141802501  0.0026458783434937100  1099846.2734649400
 18389.524762349600  0.0063108669302979203  1099846.2735214501
 18389.514197501299  0.015900155275560199  1099846.2736980901
 18389.482813988900  0.041653909417325399  1099846.2742228301
 18389.396518248999  0.11269021099987100  1099846.2756656900
 18389.166340708300  0.31262109807136101  1099846.2795141900
 18388.577201452699  0.87672683177958499  1099846.2893639901
 18387.118790335200  2.4622009501633699  1099846.3137441201
 18383.623338977101  6.8723085910815902  1099846.3721564501
 18375.513393277499  18.978860229441800  1099846.5075397301
 18357.307175600399  51.737688564947298  1099846.8105133900
 18317.824841091900  139.10264297599801  1099847.4612161200
 18235.327548974299  368.88774080354500  1099848.7790378300
 18069.878628891100  965.59959062893995  1099851.1477030700
 17753.134104737201  2497.6224895647401  1099853.8939838100
 17178.694298120299  6391.9681731885803  1099847.2781277800
 16202.377889524900  16202.377889524800  1099761.3222429000
 14670.826329904199  40680.305245796699  1099149.6165763400
 12503.269935447001  100877.04548248200  1095293.3351096599
 9864.6579728676406  244186.94871026301  1072508.9382390501
 7679.4843639339297  553484.35399110895  950576.71726533899
 1126.5910102491100 -562234.66909616999  945458.04119432799
 2825.1361595308899 -250503.08151533501  1071093.0047185500
 4424.1713034656304 -104473.43719866400  1095018.5969325700
 5601.5422506380501 -42579.920349020802  1099161.3044078101
 6391.9681731885903 -17178.694298120201  1099847.2781277800
 6887.9997576209598 -6887.9997576209698  1099956.8677537700
 7181.4371892353402 -2747.5229292244499  1099973.1260706601
 7346.1493202294696 -1090.1558362345399  1099974.9295554000
 7434.3952887054102 -430.07083172199998  1099974.7928047101
 7479.7480950394402 -168.61723887291899  1099974.5564951301
 7502.1991370091800 -65.684665300579695  1099974.4145631900
 7512.9395358972197 -25.424306548374702  1099974.3429249299
 7517.9177162713804 -9.7828583506733597  1099974.3091624901
 7520.1569389283904 -3.7456042193985799  1099974.2938930800
 7521.1362786820500 -1.4293392462866501  1099974.2872026800
 7521.5528346868196 -0.54459280829382495  1099974.2843551701
 7521.7250528154900 -0.20784697523701001  1099974.2831776501
 7521.7945563205003 -0.079587852916761403  1099974.2827023901
 7521.8214912767999 -0.030661433588744399  1099974.2825182099
 7521.8319168626304 -0.011964870260622699  1099974.2824469199
 7521.8356247869897 -0.0046035471026749097  1099974.2824215600
 7521.8371369164697 -0.0019056302607076399  1099974.2824112200
 7521.8375911673602 -0.00075039205435711105  1099974.2824081201
 7521.8378217850304 -0.00041734170723203200  1099974.2824065399
 7521.8379440027402 -0.00023156034102334800  1099974.2824057001
 7521.8379281866701 -0.00018492371570308700  1099974.2824058100
 7521.8380687889003 -0.00011751985694823799  1099974.2824048500
 7521.8379766440603 -7.4541264068186605e-05  1099974.2824054800
 7521.8380968811698 -5.9136473923780297e-05  1099974.2824046600
 7521.8380046909097 -1.2305865863984800e-05  1099974.2824052901
 7521.8380618493202 -4.0697622344236997e-05  1099974.2824049001
 7521.8380207561204 -6.5131794779849500e-06  1099974.2824051799
 7521.8380401765598 -4.6766997218200200e-05  1099974.2824050500
 7521.8380589619901 -1.4886990335107401e-05  1099974.2824049201
 7521.8380569980300 -4.1278427195074203e-05  1099974.2824049301
 7521.8380913221499  6.1421234736647700e-06  1099974.2824047001
 7521.8380727777203  2.1178764266517799e-06  1099974.2824048200
 7521.8380976649996  4.2251328315024702e-05  1099974.2824046500
 7521.8380858141800  2.1756978491315300e-05  1099974.2824047301
 7521.8380969630498  2.2916030951375301e-05  1099974.2824046600
 7521.8380969630398 -2.2916035277185401e-05  1099974.2824046600
 7521.8380858142000 -2.1756974450385301e-05  1099974.2824047301
 7521.8380976649996 -4.2251334593628302e-05  1099974.2824046500
 7521.8380727777103 -2.1178721520188798e-06  1099974.2824048200
 7521.8380913221299 -6.1421144580585899e-06  1099974.2824047001
 7521.8380569980300  4.1278422518454902e-05  1099974.2824049301
 7521.8380589620101  1.4886997191117099e-05  1099974.2824049201
 7521.8380401765598  4.6766997938594403e-05  1099974.2824050500
 7521.8380207561804  6.5131774001077696e-06  1099974.2824051799
 7521.8380618493002  4.0697629666862101e-05  1099974.2824049001
 7521.8380046909197  1.2305859265676400e-05  1099974.2824052901
 7521.8380968811498  5.9136476905895401e-05  1099974.2824046600
 7521.8379766440803  7.4541263422428405e-05  1099974.2824054800
 7521.8380687888903  0.00011751984779231000  1099974.2824048500
 7521.8379281866701  0.00018492371893794699  1099974.2824058100
 7521.8379440027302  0.00023156033292661099  1099974.2824057001
 7521.8378217850504  0.00041734170892595201  1099974.2824065399
 7521.8375911673402  0.00075039206040880102  1099974.2824081201
 7521.8371369164597  0.0019056302529140000  1099974.2824112200
 7521.8356247869897  0.0046035470991605499  1099974.2824215600
 7521.8319168626203  0.011964870261493100  1099974.2824469199
 7521.8214912767698  0.030661433590713699  1099974.2825182099
 7521.7945563205203  0.079587852912135507  1099974.2827023901
 7521.7250528154900  0.20784697524528400  1099974.2831776501
 7521.5528346867904  0.54459280829409695  1099974.2843551701